64
Lattice="1.2004530297505123 34.512344332589876 21.933256457294487 73.1986514516634 14.776231016250424 -5.884003842089181 7.136279766252242 28.433202197371266 -33.87325201981518" Properties=species:S:1:pos:R:3:masses:R:1:momenta:R:3:Z:I:1 ns_KE=0.0 ns_P=0.05 last_walked_iter_extra=288 config_n_global=299 iter=299 volume=127059.63062179518 pbc="T T T" ns_energy=6353.400063067059 KEmax=-1.0
H   1034.42594248    -490.08896185     785.23913864       1.00000000       0.00000000       0.00000000       0.00000000        1 
H   -204.95182266     680.97113596    -930.11590690       1.00000000       0.00000000       0.00000000       0.00000000        1 
H  -1010.59715470    -846.83296903     708.82290810       1.00000000       0.00000000       0.00000000       0.00000000        1 
H   -343.51329636    1388.91059957    -503.01979789       1.00000000       0.00000000       0.00000000       0.00000000        1 
H   -772.65042268    -475.58762829     308.18417542       1.00000000       0.00000000       0.00000000       0.00000000        1 
H   3216.28840089    1031.71478984    -921.07994469       1.00000000       0.00000000       0.00000000       0.00000000        1 
H  -1098.19329252    -387.11300636    -511.43919100       1.00000000       0.00000000       0.00000000       0.00000000        1 
H    764.28541707    -380.87684138    -247.62367910       1.00000000       0.00000000       0.00000000       0.00000000        1 
H   1250.37713319    1268.17040330    -127.10865652       1.00000000       0.00000000       0.00000000       0.00000000        1 
H    391.89281203     370.81819424      17.40137496       1.00000000       0.00000000       0.00000000       0.00000000        1 
H    956.44524778    -206.41140548     512.46804104       1.00000000       0.00000000       0.00000000       0.00000000        1 
H   -161.98600241     138.51514459     391.27560308       1.00000000       0.00000000       0.00000000       0.00000000        1 
H   2350.45244330     572.51763585    -795.19049282       1.00000000       0.00000000       0.00000000       0.00000000        1 
H    148.09615251    -604.14772709    1123.38840213       1.00000000       0.00000000       0.00000000       0.00000000        1 
H   1098.34978564    -473.40441451     441.98117424       1.00000000       0.00000000       0.00000000       0.00000000        1 
H   1426.88548185     895.39846871     149.64998375       1.00000000       0.00000000       0.00000000       0.00000000        1 
H   -500.21464097    -173.97686848    -395.03075941       1.00000000       0.00000000       0.00000000       0.00000000        1 
H  -1389.52654865   -1907.91950501     341.52611380       1.00000000       0.00000000       0.00000000       0.00000000        1 
H   1728.57550003    -293.04248171    -522.77020064       1.00000000       0.00000000       0.00000000       0.00000000        1 
H   1531.75638932     348.19565421    1846.33704541       1.00000000       0.00000000       0.00000000       0.00000000        1 
H   -210.95977283   -1004.19165189     311.54179006       1.00000000       0.00000000       0.00000000       0.00000000        1 
H  -1967.38066859    -918.97782010    1753.20059725       1.00000000       0.00000000       0.00000000       0.00000000        1 
H  -1190.56095356    -512.97571576    -740.34983244       1.00000000       0.00000000       0.00000000       0.00000000        1 
H    512.04386724     328.92008230     760.06778104       1.00000000       0.00000000       0.00000000       0.00000000        1 
H    457.00494420     189.80058123    -257.93318123       1.00000000       0.00000000       0.00000000       0.00000000        1 
H    633.50520021     426.12205468    -365.77085256       1.00000000       0.00000000       0.00000000       0.00000000        1 
H  -2926.23423456    -568.97582651     759.90807842       1.00000000       0.00000000       0.00000000       0.00000000        1 
H   -422.44961716     179.23949826      73.90713933       1.00000000       0.00000000       0.00000000       0.00000000        1 
H    855.60384462     280.84596701      78.98031713       1.00000000       0.00000000       0.00000000       0.00000000        1 
H    864.79385505       2.42685750     446.35792350       1.00000000       0.00000000       0.00000000       0.00000000        1 
H    444.52763964    -340.08126448    1997.96059243       1.00000000       0.00000000       0.00000000       0.00000000        1 
H   2338.71396388    2131.15424785   -1216.44389761       1.00000000       0.00000000       0.00000000       0.00000000        1 
H    721.63755399     392.87371914    -103.92821063       1.00000000       0.00000000       0.00000000       0.00000000        1 
H  -1377.12091492   -1286.91279073    -341.01219726       1.00000000       0.00000000       0.00000000       0.00000000        1 
H  -1854.74573759   -1081.41953722     605.84400642       1.00000000       0.00000000       0.00000000       0.00000000        1 
H   -866.64187039     735.14286378     709.14493830       1.00000000       0.00000000       0.00000000       0.00000000        1 
H   -516.11715359    -349.31523862    3124.28951935       1.00000000       0.00000000       0.00000000       0.00000000        1 
H  -2930.81906847     112.51918079     -74.38112664       1.00000000       0.00000000       0.00000000       0.00000000        1 
H    301.87256641     535.66807681     304.34697435       1.00000000       0.00000000       0.00000000       0.00000000        1 
H  -3310.87376758    -241.69605242    1468.58968383       1.00000000       0.00000000       0.00000000       0.00000000        1 
H    175.84547872     -71.02748242     237.78866255       1.00000000       0.00000000       0.00000000       0.00000000        1 
H   1854.28770478     903.79981300    -752.19070499       1.00000000       0.00000000       0.00000000       0.00000000        1 
H    589.19457446   -1170.65633716    1450.80498277       1.00000000       0.00000000       0.00000000       0.00000000        1 
H  -3549.92071765   -1154.11141148     621.62468288       1.00000000       0.00000000       0.00000000       0.00000000        1 
H   -226.72512304    1134.16591925     301.27501252       1.00000000       0.00000000       0.00000000       0.00000000        1 
H    423.51843808    -179.40270941      90.74479520       1.00000000       0.00000000       0.00000000       0.00000000        1 
H    848.65495199     232.93268249    -244.57161905       1.00000000       0.00000000       0.00000000       0.00000000        1 
H    268.00327331    -848.31408468    -118.65250134       1.00000000       0.00000000       0.00000000       0.00000000        1 
H  -1922.83210781   -1547.33658257     689.53623686       1.00000000       0.00000000       0.00000000       0.00000000        1 
H   -269.93264409     -75.86655490    -336.67250813       1.00000000       0.00000000       0.00000000       0.00000000        1 
H   1002.67799163     943.27890010   -1450.54643071       1.00000000       0.00000000       0.00000000       0.00000000        1 
H   -330.15594678     298.64287806    -703.50160659       1.00000000       0.00000000       0.00000000       0.00000000        1 
H  -3833.92030641     100.59871692     964.05383518       1.00000000       0.00000000       0.00000000       0.00000000        1 
H    735.09029823     585.52002096     701.33578990       1.00000000       0.00000000       0.00000000       0.00000000        1 
H  -1429.33228744     116.63593800    -205.93814068       1.00000000       0.00000000       0.00000000       0.00000000        1 
H  -1687.63665728    -211.19082842     112.96292500       1.00000000       0.00000000       0.00000000       0.00000000        1 
H   1339.01183694    1239.91999590    1157.96440358       1.00000000       0.00000000       0.00000000       0.00000000        1 
H  -2106.73864886    -889.45429556    -249.25834296       1.00000000       0.00000000       0.00000000       0.00000000        1 
H   -270.65677196   -1919.38071401     -60.72832952       1.00000000       0.00000000       0.00000000       0.00000000        1 
H  -1098.30625640     196.75541813      11.06590738       1.00000000       0.00000000       0.00000000       0.00000000        1 
H    912.36650878    1016.08926209    -751.49605130       1.00000000       0.00000000       0.00000000       0.00000000        1 
H   2456.53207992    -285.52254018     863.85982029       1.00000000       0.00000000       0.00000000       0.00000000        1 
H   2119.29202872     595.96861780    -236.61961716       1.00000000       0.00000000       0.00000000       0.00000000        1 
H    508.48092418    -698.77273939     239.33829758       1.00000000       0.00000000       0.00000000       0.00000000        1 
64
Lattice="21.522619187732918 7.013591352541268 40.50943455567373 29.141304497404054 -22.89375683937551 -20.114793657669676 -11.915428270369057 43.3171101268122 -23.540732201995795" Properties=species:S:1:pos:R:3:masses:R:1:momenta:R:3:Z:I:1 last_walked_iter_clone=21691 ns_KE=0.0 ns_P=0.05 last_walked_iter_extra=21798 config_n_global=21799 iter=21799 volume=76929.88161296298 pbc="T T T" ns_energy=3844.895304035706 KEmax=-1.0
H -18510.14408653   15504.95285563   -3167.17826563       1.00000000       0.00000000       0.00000000       0.00000000        1 
H  -5539.97378851    9828.39852475   -4592.37587012       1.00000000       0.00000000       0.00000000       0.00000000        1 
H  -6646.13430177   14480.15129339   17718.16108256       1.00000000       0.00000000       0.00000000       0.00000000        1 
H  -5098.32179996    4545.13262673  -10503.17346674       1.00000000       0.00000000       0.00000000       0.00000000        1 
H -10341.97878259   12921.78307473    9522.92502764       1.00000000       0.00000000       0.00000000       0.00000000        1 
H  -3132.14735701     185.25361838  -10184.44246446       1.00000000       0.00000000       0.00000000       0.00000000        1 
H  -8996.50570446    4302.44585905   -7852.13406762       1.00000000       0.00000000       0.00000000       0.00000000        1 
H   -140.56328206    5826.86529413  -11998.68315476       1.00000000       0.00000000       0.00000000       0.00000000        1 
H  -1012.04159666  -12579.18247976  -18824.56683816       1.00000000       0.00000000       0.00000000       0.00000000        1 
H   9898.97021064    1080.60289995     736.68541674       1.00000000       0.00000000       0.00000000       0.00000000        1 
H  -9323.91461306    4153.61274535       4.77824561       1.00000000       0.00000000       0.00000000       0.00000000        1 
H  -4005.46058630   -5511.06406449    5591.58369410       1.00000000       0.00000000       0.00000000       0.00000000        1 
H  12999.28199986  -16778.16584886   17608.51702645       1.00000000       0.00000000       0.00000000       0.00000000        1 
H   4533.17016402    3717.76634146   -2525.99888967       1.00000000       0.00000000       0.00000000       0.00000000        1 
H   6005.50230097    9446.24871335   11885.36641883       1.00000000       0.00000000       0.00000000       0.00000000        1 
H   1381.81074289  -10324.53180776   19131.19102646       1.00000000       0.00000000       0.00000000       0.00000000        1 
H   1545.23976519    5017.22712820   12996.33504337       1.00000000       0.00000000       0.00000000       0.00000000        1 
H   3103.04189332   -7557.04585028    1885.45118529       1.00000000       0.00000000       0.00000000       0.00000000        1 
H  10035.85387735   -6338.90262570    3237.26225275       1.00000000       0.00000000       0.00000000       0.00000000        1 
H  10148.30495091   -1904.33178844   18318.48287284       1.00000000       0.00000000       0.00000000       0.00000000        1 
H   9229.38654663   -4082.19054637    3881.36282651       1.00000000       0.00000000       0.00000000       0.00000000        1 
H   4337.03252042   -5516.69366241    1546.99580877       1.00000000       0.00000000       0.00000000       0.00000000        1 
H  -5524.43672180   15072.32076109   15156.96762280       1.00000000       0.00000000       0.00000000       0.00000000        1 
H  -4942.89140362   -1122.15165792   -5837.72872514       1.00000000       0.00000000       0.00000000       0.00000000        1 
H  -1946.32694260   -1880.91865358   21061.54703023       1.00000000       0.00000000       0.00000000       0.00000000        1 
H  -1483.76121394    1613.86718637     -38.85184161       1.00000000       0.00000000       0.00000000       0.00000000        1 
H  13180.54324091  -12136.92646510   -2255.61706106       1.00000000       0.00000000       0.00000000       0.00000000        1 
H  -2020.87356355   -8769.58854790    -103.97234851       1.00000000       0.00000000       0.00000000       0.00000000        1 
H   6038.26944568  -15458.00761152   24084.19603493       1.00000000       0.00000000       0.00000000       0.00000000        1 
H   1749.91295699    2960.66023655    1983.41014246       1.00000000       0.00000000       0.00000000       0.00000000        1 
H  -1160.50065785    7150.88083291   -7448.86548602       1.00000000       0.00000000       0.00000000       0.00000000        1 
H   1138.52837403    7286.30782946  -17981.18017805       1.00000000       0.00000000       0.00000000       0.00000000        1 
H  -1338.76113533    5874.96268938   -1602.79212281       1.00000000       0.00000000       0.00000000       0.00000000        1 
H  -3345.47998640   10738.40416669   13106.29432956       1.00000000       0.00000000       0.00000000       0.00000000        1 
H  -3264.29393616    6070.33457157    3725.45462060       1.00000000       0.00000000       0.00000000       0.00000000        1 
H   6704.81307211   -6096.05948031   -5875.92424442       1.00000000       0.00000000       0.00000000       0.00000000        1 
H  12244.39635188    1257.54698964  -21606.96515924       1.00000000       0.00000000       0.00000000       0.00000000        1 
H   1262.60489667   -9345.73494901   10308.77530381       1.00000000       0.00000000       0.00000000       0.00000000        1 
H  -1345.58780057   -4615.79294629   12261.44842499       1.00000000       0.00000000       0.00000000       0.00000000        1 
H -10864.99672472    7932.71981462   -4338.35999313       1.00000000       0.00000000       0.00000000       0.00000000        1 
H   4099.98282546   -1607.49098890    5649.88667174       1.00000000       0.00000000       0.00000000       0.00000000        1 
H  -2800.34177017    1056.61150582    -561.67886716       1.00000000       0.00000000       0.00000000       0.00000000        1 
H  -1803.31869812     474.68044454    5567.91800024       1.00000000       0.00000000       0.00000000       0.00000000        1 
H  11213.42216383  -16291.19530412   19307.36225913       1.00000000       0.00000000       0.00000000       0.00000000        1 
H  16302.55077474  -13679.94378888   -9888.73385976       1.00000000       0.00000000       0.00000000       0.00000000        1 
H   -541.12628338   10318.46731022   15764.05312742       1.00000000       0.00000000       0.00000000       0.00000000        1 
H   9000.17087849   -1961.52073508    7934.70288717       1.00000000       0.00000000       0.00000000       0.00000000        1 
H   8130.87723924  -11129.22831272   -1588.37675877       1.00000000       0.00000000       0.00000000       0.00000000        1 
H   -973.44993537    5689.38746448   10805.40631794       1.00000000       0.00000000       0.00000000       0.00000000        1 
H   3544.55319964    8849.22563357   -1964.22843969       1.00000000       0.00000000       0.00000000       0.00000000        1 
H   8264.33795471   -7858.32587453   13254.58025107       1.00000000       0.00000000       0.00000000       0.00000000        1 
H  -5716.50383479   20423.26637048   -4987.34762722       1.00000000       0.00000000       0.00000000       0.00000000        1 
H   6074.38305026  -10022.48205180    5423.04665353       1.00000000       0.00000000       0.00000000       0.00000000        1 
H   6548.27080788      13.99871853   14698.60645195       1.00000000       0.00000000       0.00000000       0.00000000        1 
H  -4397.38675868   -9224.41400167  -10181.24774837       1.00000000       0.00000000       0.00000000       0.00000000        1 
H  -1372.19692750   -2499.15745345    4829.31935412       1.00000000       0.00000000       0.00000000       0.00000000        1 
H  18069.82338386  -13753.25347590   19926.44370294       1.00000000       0.00000000       0.00000000       0.00000000        1 
H  -6139.46977139   -9641.01607168  -22690.40707742       1.00000000       0.00000000       0.00000000       0.00000000        1 
H  -6769.12020610   -6017.44547623  -16648.72267472       1.00000000       0.00000000       0.00000000       0.00000000        1 
H    174.59907243    1807.17165052    1288.49260255       1.00000000       0.00000000       0.00000000       0.00000000        1 
H  -4029.76904982   17190.38483692    6673.65111296       1.00000000       0.00000000       0.00000000       0.00000000        1 
H -12975.93509056   19109.29185648   -5077.93804448       1.00000000       0.00000000       0.00000000       0.00000000        1 
H  -4839.27058677   -5125.45670397   -2258.09309408       1.00000000       0.00000000       0.00000000       0.00000000        1 
H  -2891.81104163    4692.08722709  -14755.19490648       1.00000000       0.00000000       0.00000000       0.00000000        1 
64
Lattice="15.01437367228223 -3.8287092791365014 -36.88334169152956 37.232812654312035 -21.303688878200376 13.312617919963614 -28.791850133910017 -21.064619092283515 -22.91454780010434" Properties=species:S:1:pos:R:3:masses:R:1:momenta:R:3:Z:I:1 last_walked_iter_clone=30444 ns_KE=0.0 ns_P=0.05 last_walked_iter_extra=31591 config_n_global=31599 iter=31599 volume=61291.51781264455 pbc="T T T" ns_energy=3064.5758906297992 KEmax=-1.0
H    511.64439570   -1754.23227967   -2867.58311909       1.00000000       0.00000000       0.00000000       0.00000000        1 
H   8807.80728707    2030.98328040   -4558.42600872       1.00000000       0.00000000       0.00000000       0.00000000        1 
H -16491.07764515    8188.20759761  -12669.15508122       1.00000000       0.00000000       0.00000000       0.00000000        1 
H  11180.13738427   -4988.81391412  -12685.84080230       1.00000000       0.00000000       0.00000000       0.00000000        1 
H -15221.54062771     865.01555864   -1339.86936436       1.00000000       0.00000000       0.00000000       0.00000000        1 
H  10528.60182924    7640.60700314   -5916.48844495       1.00000000       0.00000000       0.00000000       0.00000000        1 
H    526.22010137    3041.24590872    2295.42438256       1.00000000       0.00000000       0.00000000       0.00000000        1 
H  35035.50611167    4500.42487457    7941.42791959       1.00000000       0.00000000       0.00000000       0.00000000        1 
H  -8474.97542139   -9331.20607841   -2343.97057845       1.00000000       0.00000000       0.00000000       0.00000000        1 
H  -6069.08676361    8824.08666658    -498.43500537       1.00000000       0.00000000       0.00000000       0.00000000        1 
H -19117.01299504   -7963.92426245   24332.56246663       1.00000000       0.00000000       0.00000000       0.00000000        1 
H  -2673.09564699   -2825.15809825   -2428.14074590       1.00000000       0.00000000       0.00000000       0.00000000        1 
H  -1694.48447820    -899.95919433    9304.53164310       1.00000000       0.00000000       0.00000000       0.00000000        1 
H -16592.80078767    8958.18043607   -5474.22289475       1.00000000       0.00000000       0.00000000       0.00000000        1 
H   6788.91365000   -7837.41074507     -69.27311395       1.00000000       0.00000000       0.00000000       0.00000000        1 
H   4937.89005070   -8574.96824266   -5131.88567855       1.00000000       0.00000000       0.00000000       0.00000000        1 
H   9071.57920621    2821.74610433   -8542.43857235       1.00000000       0.00000000       0.00000000       0.00000000        1 
H -13776.21903986    3717.78400237    7706.38925737       1.00000000       0.00000000       0.00000000       0.00000000        1 
H  30167.36036803    1863.36901835    8865.29487244       1.00000000       0.00000000       0.00000000       0.00000000        1 
H   5530.43771811   -2762.17282958  -18100.22396172       1.00000000       0.00000000       0.00000000       0.00000000        1 
H   7204.56438155   -9839.32018487    9861.43981125       1.00000000       0.00000000       0.00000000       0.00000000        1 
H  -3593.90758257   -5836.54739975  -17666.81396887       1.00000000       0.00000000       0.00000000       0.00000000        1 
H -18697.51040837    4060.85827597    9277.07989894       1.00000000       0.00000000       0.00000000       0.00000000        1 
H  23693.07750615    6269.91296387   28169.96646536       1.00000000       0.00000000       0.00000000       0.00000000        1 
H   -945.22694808   -9804.07027177   -8520.32458262       1.00000000       0.00000000       0.00000000       0.00000000        1 
H  -2876.02909357   -5527.25051882  -13097.49736966       1.00000000       0.00000000       0.00000000       0.00000000        1 
H  -3927.26546232   -8428.03189124   -5096.68739598       1.00000000       0.00000000       0.00000000       0.00000000        1 
H -10919.00854393   -3919.22697615   -8814.03018513       1.00000000       0.00000000       0.00000000       0.00000000        1 
H -12042.33081334   11177.78005516   -3286.22505416       1.00000000       0.00000000       0.00000000       0.00000000        1 
H  18111.67941933  -11565.44188232   -1677.61093401       1.00000000       0.00000000       0.00000000       0.00000000        1 
H  -7505.60430522   -5915.98746484  -13359.43725722       1.00000000       0.00000000       0.00000000       0.00000000        1 
H  27608.76030307    1094.25178432    5437.35166159       1.00000000       0.00000000       0.00000000       0.00000000        1 
H  -4588.09888228    -239.74117409    1739.71963527       1.00000000       0.00000000       0.00000000       0.00000000        1 
H   8721.15739213   -6224.84181050   -2802.34893873       1.00000000       0.00000000       0.00000000       0.00000000        1 
H    291.56209793   -2284.86736229    7249.32719689       1.00000000       0.00000000       0.00000000       0.00000000        1 
H -11883.18652601   -4329.39748393  -10914.96639382       1.00000000       0.00000000       0.00000000       0.00000000        1 
H  -5598.50156430    6955.29210378   11307.30581480       1.00000000       0.00000000       0.00000000       0.00000000        1 
H   8074.42488894   -8536.41496384    6807.23223758       1.00000000       0.00000000       0.00000000       0.00000000        1 
H   4763.98317049   -6559.45886312   -7659.61852305       1.00000000       0.00000000       0.00000000       0.00000000        1 
H  11926.46494037   -2586.84548382    1940.76155069       1.00000000       0.00000000       0.00000000       0.00000000        1 
H    -12.82841153   -4699.90223733   -4126.36423712       1.00000000       0.00000000       0.00000000       0.00000000        1 
H  26284.59306851    2166.79919367   -1732.03934608       1.00000000       0.00000000       0.00000000       0.00000000        1 
H  -2976.86792903   13432.91053372   17923.12230776       1.00000000       0.00000000       0.00000000       0.00000000        1 
H -18896.60839670    7075.85750945    5500.18416252       1.00000000       0.00000000       0.00000000       0.00000000        1 
H -17310.15807638    8123.29792412   11567.67589434       1.00000000       0.00000000       0.00000000       0.00000000        1 
H   8315.11707732  -13705.11324474   -6132.23553210       1.00000000       0.00000000       0.00000000       0.00000000        1 
H  12605.68127772    3520.32406000    7281.12866290       1.00000000       0.00000000       0.00000000       0.00000000        1 
H   5784.32331106   17055.77356851    8465.92044998       1.00000000       0.00000000       0.00000000       0.00000000        1 
H -10391.54572606   -3783.98966313    7814.59960304       1.00000000       0.00000000       0.00000000       0.00000000        1 
H  13517.80958206     -17.94797457   -2678.04685818       1.00000000       0.00000000       0.00000000       0.00000000        1 
H   8901.63663854  -20384.85216652  -25228.46992336       1.00000000       0.00000000       0.00000000       0.00000000        1 
H   9891.85974353  -16554.11892133    1720.57706595       1.00000000       0.00000000       0.00000000       0.00000000        1 
H -11898.27385615    2894.51860967  -15042.35403105       1.00000000       0.00000000       0.00000000       0.00000000        1 
H   7208.72171437   -6193.16947817   -2408.93992291       1.00000000       0.00000000       0.00000000       0.00000000        1 
H  -2048.10156675     861.80305159   -5858.47667715       1.00000000       0.00000000       0.00000000       0.00000000        1 
H -21155.56399263   15423.14962493  -16814.81774845       1.00000000       0.00000000       0.00000000       0.00000000        1 
H  -5207.06571943   -4072.16991879    1510.41797706       1.00000000       0.00000000       0.00000000       0.00000000        1 
H  -6532.39417045     185.76850509   -6688.80570723       1.00000000       0.00000000       0.00000000       0.00000000        1 
H  10003.37920928   12027.48154343   17628.23729041       1.00000000       0.00000000       0.00000000       0.00000000        1 
H  -7235.77226009   -9909.53686359    1394.72218909       1.00000000       0.00000000       0.00000000       0.00000000        1 
H -21974.49190033  -13253.44917915    2522.92709046       1.00000000       0.00000000       0.00000000       0.00000000        1 
H   2496.15306706     711.82790616   16897.30013299       1.00000000       0.00000000       0.00000000       0.00000000        1 
H -15345.12130880    1209.13502362  -10826.74722091       1.00000000       0.00000000       0.00000000       0.00000000        1 
H   -584.55858490    8673.03286204   44105.79202001       1.00000000       0.00000000       0.00000000       0.00000000        1 
64
Lattice="-11.83715980400275 -27.922224413099766 -16.73991351468756 -32.598849385386856 28.046190158765846 -27.062065386177178 25.7186048366817 -10.927052946997957 -25.516431041113833" Properties=species:S:1:pos:R:3:masses:R:1:momenta:R:3:Z:I:1 last_walked_iter_clone=30973 ns_KE=0.0 ns_P=0.05 last_walked_iter_extra=31996 config_n_global=31999 iter=31999 volume=60742.924229978285 pbc="T T T" ns_energy=3036.556016587455 KEmax=-1.0
H   1795.62098639   17829.49999033   -7023.67436936       1.00000000       0.00000000       0.00000000       0.00000000        1 
H   4009.67548159    2011.03244732    4508.57382651       1.00000000       0.00000000       0.00000000       0.00000000        1 
H -11446.93815540  -15201.79154779  -10208.45718784       1.00000000       0.00000000       0.00000000       0.00000000        1 
H   7628.92702750    1661.22471847   -9398.35076635       1.00000000       0.00000000       0.00000000       0.00000000        1 
H   3753.55828302   -9879.56673943    2382.41768891       1.00000000       0.00000000       0.00000000       0.00000000        1 
H   1570.10736938    4366.00439522    -480.97273478       1.00000000       0.00000000       0.00000000       0.00000000        1 
H -17516.75152693   26957.20211491    7982.91382437       1.00000000       0.00000000       0.00000000       0.00000000        1 
H  -6640.86317081   11705.67847528  -17711.91500357       1.00000000       0.00000000       0.00000000       0.00000000        1 
H   8245.86949304    3849.97462440   18271.99478905       1.00000000       0.00000000       0.00000000       0.00000000        1 
H -14463.90033973  -10213.83834204    4852.82392219       1.00000000       0.00000000       0.00000000       0.00000000        1 
H   2314.80047225     348.71273190   -2539.55282249       1.00000000       0.00000000       0.00000000       0.00000000        1 
H   8733.83242687  -13497.06464075   18326.13170470       1.00000000       0.00000000       0.00000000       0.00000000        1 
H -15640.81596143   20534.08422345  -17433.04324508       1.00000000       0.00000000       0.00000000       0.00000000        1 
H -12532.49039099   -1801.34701384    4237.17876207       1.00000000       0.00000000       0.00000000       0.00000000        1 
H   -938.23243965   -6429.36568396    8996.83762415       1.00000000       0.00000000       0.00000000       0.00000000        1 
H -16197.94183720   13566.63462130  -21523.77625732       1.00000000       0.00000000       0.00000000       0.00000000        1 
H  -8536.92688723   -7954.55888571    1736.93061778       1.00000000       0.00000000       0.00000000       0.00000000        1 
H   6423.54957427    -833.49472533   16632.23431199       1.00000000       0.00000000       0.00000000       0.00000000        1 
H  -9191.56095457   11158.02204051  -10522.13429056       1.00000000       0.00000000       0.00000000       0.00000000        1 
H    586.23151814    2592.06150737   16731.65402044       1.00000000       0.00000000       0.00000000       0.00000000        1 
H    -79.57264049    1029.48379681   -5750.95461145       1.00000000       0.00000000       0.00000000       0.00000000        1 
H -13791.50964686   17118.86038328   -6386.43849713       1.00000000       0.00000000       0.00000000       0.00000000        1 
H -24144.52130404     714.33245852  -11203.16381851       1.00000000       0.00000000       0.00000000       0.00000000        1 
H   -508.85789929    4392.29584617   -2991.01645360       1.00000000       0.00000000       0.00000000       0.00000000        1 
H   2565.34667919   -5597.72012680   14896.22557346       1.00000000       0.00000000       0.00000000       0.00000000        1 